                         Program Version 5.0.4 -  RELEASE  -
|  1> !B3LYP DEF2-TZVP OPT FREQ TIGHTSCF
|  2>
|  3> %maxcore 28000
|  4>
|  5> %pal nprocs 12 end
|  6>
|  7> *xyzfile 0 1 co2-init.xyz
|  8>
|  9>                          ****END OF INPUT****
 Total Charge           Charge          ....    0
 Multiplicity           Mult            ....    1
 Number of Electrons    NEL             ....   22
FINAL SINGLE POINT ENERGY      -188.587319646923
FINAL SINGLE POINT ENERGY      -188.587351633415
FINAL SINGLE POINT ENERGY      -188.587352100105
                    ***********************HURRAY********************

CARTESIAN COORDINATES (ANGSTROEM)
---------------------------------
  O      0.000000    0.000000    1.159968
  O      0.000000    0.000000   -1.159968
  C     -0.000000   -0.000000   -0.000000

 Multiplicity           Mult            ....    1
 Number of Electrons    NEL             ....   22
 Basis Dimension        Dim             ....   93

ORBITAL ENERGIES
----------------

  NO   OCC          E(Eh)            E(eV)
   0   2.0000     -19.210348      -522.7402
   1   2.0000     -19.210345      -522.7401
   2   2.0000     -10.361818      -281.9594
   3   2.0000      -1.167210       -31.7614
   4   2.0000      -1.127592       -30.6834
   5   2.0000      -0.568471       -15.4689
   6   2.0000      -0.526574       -14.3288
   7   2.0000      -0.523449       -14.2438
   8   2.0000      -0.523449       -14.2438
   9   2.0000      -0.379367       -10.3231
  10   2.0000      -0.379367       -10.3231
  11   0.0000       0.016203         0.4409
  12   0.0000       0.027024         0.7354
  13   0.0000       0.027024         0.7354
  14   0.0000       0.163436         4.4473
  15   0.0000       0.183318         4.9883

MULLIKEN ATOMIC CHARGES
-----------------------
   0 O :   -0.186684
   1 O :   -0.186683
   2 C :    0.373367
Sum of atomic charges:    0.0000000

LOEWDIN ATOMIC CHARGES
----------------------
   0 O :    0.206722
   1 O :    0.206722
   2 C :   -0.413444

  Mayer bond orders larger than 0.100000
B(  0-O ,  1-O ) :   0.2173 B(  0-O ,  2-C ) :   2.1555 B(  1-O ,  2-C ) :   2.1555

FINAL SINGLE POINT ENERGY      -188.587352098676

DIPOLE MOMENT
-------------
                                X             Y             Z
Electronic contribution:      0.00000       0.00000      -0.00000
Nuclear contribution   :      0.00000       0.00000       0.00000
                        -----------------------------------------
Total Dipole Moment    :      0.00000       0.00000      -0.00000
                        -----------------------------------------
Magnitude (a.u.)       :      0.00000
Magnitude (Debye)      :      0.00000

VIBRATIONAL FREQUENCIES
-----------------------

Scaling factor for frequencies =  1.000000000  (already applied!)

   0:         0.00 cm**-1
   1:         0.00 cm**-1
   2:         0.00 cm**-1
   3:         0.00 cm**-1
   4:         0.00 cm**-1
   5:       676.41 cm**-1
   6:       676.41 cm**-1
   7:      1370.98 cm**-1
   8:      2408.02 cm**-1

IR SPECTRUM
-----------

 Mode   freq       eps      Int      T**2         TX        TY        TZ
       cm**-1   L/(mol*cm) km/mol    a.u.
----------------------------------------------------------------------------
  5:    676.41   0.006361   32.15  0.002935  ( 0.002234 -0.054126  0.000000)
  6:    676.41   0.006361   32.15  0.002935  (-0.054126 -0.002234 -0.000000)
  7:   1370.98   0.000000    0.00  0.000000  ( 0.000000 -0.000000  0.000000)
  8:   2408.02   0.128341  648.59  0.016632  (-0.000000  0.000000  0.128966)

--------------------------
THERMOCHEMISTRY AT 298.15K
--------------------------

Temperature         ... 298.15 K
Pressure            ... 1.00 atm
Total Mass          ... 44.01 AMU
The molecule is recognized as being linear

Throughout the following assumptions are being made:
  (1) The electronic state is orbitally nondegenerate
  (2) There are no thermally accessible electronically excited states
  (3) Hindered rotations indicated by low frequency modes are not
      treated as such but are treated as vibrations and this may
      cause some error
  (4) All equations used are the standard statistical mechanics
      equations for an ideal gas
  (5) All vibrations are strictly harmonic

freq.     676.41  E(vib)   ...       0.08
freq.     676.41  E(vib)   ...       0.08
freq.    1370.98  E(vib)   ...       0.01
freq.    2408.02  E(vib)   ...       0.00

------------
INNER ENERGY
------------

The inner energy is: U= E(el) + E(ZPE) + E(vib) + E(rot) + E(trans)
    E(el)   - is the total energy from the electronic structure calculation
              = E(kin-el) + E(nuc-el) + E(el-el) + E(nuc-nuc)
    E(ZPE)  - the the zero temperature vibrational energy from the frequency calculation
    E(vib)  - the the finite temperature correction to E(ZPE) due to population
              of excited vibrational states
    E(rot)  - is the rotational thermal energy
    E(trans)- is the translational thermal energy

Summary of contributions to the inner energy U:
Electronic energy                ...   -188.58735210 Eh
Zero point energy                ...      0.01169116 Eh       7.34 kcal/mol
Thermal vibrational correction   ...      0.00025350 Eh       0.16 kcal/mol
Thermal rotational correction    ...      0.00094418 Eh       0.59 kcal/mol
Thermal translational correction ...      0.00141627 Eh       0.89 kcal/mol
-----------------------------------------------------------------------
Total thermal energy                   -188.57304698 Eh

Summary of corrections to the electronic energy:
(perhaps to be used in another calculation)
Total thermal correction                  0.00261396 Eh       1.64 kcal/mol
Non-thermal (ZPE) correction              0.01169116 Eh       7.34 kcal/mol
-----------------------------------------------------------------------
Total correction                          0.01430512 Eh       8.98 kcal/mol

--------
ENTHALPY
--------

The enthalpy is H = U + kB*T
                kB is Boltzmann's constant
Total free energy                 ...   -188.57304698 Eh
Thermal Enthalpy correction       ...      0.00094421 Eh       0.59 kcal/mol
-----------------------------------------------------------------------
Total Enthalpy                    ...   -188.57210277 Eh

Note: Rotational entropy computed according to Herzberg
Infrared and Raman Spectra, Chapter V,1, Van Nostrand Reinhold, 1945
Point Group:  Dinfh, Symmetry Number:   2
Rotational constants in cm-1:     0.000000     0.391545     0.391545

Vibrational entropy computed according to the QRRHO of S. Grimme
Chem.Eur.J. 2012 18 9955

-------
ENTROPY
-------

The entropy contributions are T*S = T*(S(el)+S(vib)+S(rot)+S(trans))
     S(el)   - electronic entropy
     S(vib)  - vibrational entropy
     S(rot)  - rotational entropy
     S(trans)- translational entropy
The entropies will be listed as multiplied by the temperature to get
units of energy

Electronic entropy                ...      0.00000000 Eh      0.00 kcal/mol
Vibrational entropy               ...      0.00032867 Eh      0.21 kcal/mol
Rotational entropy                ...      0.00621112 Eh      3.90 kcal/mol
Translational entropy             ...      0.01770880 Eh     11.11 kcal/mol
-----------------------------------------------------------------------
Final entropy term                ...      0.02424859 Eh     15.22 kcal/mol

-------------------
GIBBS FREE ENERGY
-------------------

The Gibbs free energy is G = H - T*S

Total enthalpy                    ...   -188.57210277 Eh
Total entropy correction          ...     -0.02424859 Eh    -15.22 kcal/mol
-----------------------------------------------------------------------
Final Gibbs free energy         ...   -188.59635136 Eh

For completeness - the Gibbs free energy minus the electronic energy
G-E(el)                           ...     -0.00899926 Eh     -5.65 kcal/mol

                             ****ORCA TERMINATED NORMALLY****
TOTAL RUN TIME: 0 days 0 hours 0 minutes 19 seconds 861 msec
